User input:
--------------------------------------------------------------
$molecule
1 2
O 1.176237 0.000000 -0.200000
C 0.369891 1.083017 -0.200000
H 0.860605 2.049077 -0.200000
C -0.991037 -0.691793 -0.200000
H -1.838676 -1.365016 -0.200000
C -0.991037 0.691793 -0.200000
H -1.838676 1.365016 -0.200000
C 0.369891 -1.083017 -0.200000
H 0.860605 -2.049077 -0.200000
O -1.161250 0.000000 2.900000
C -0.347359 1.094894 2.900000
H -0.850457 2.049779 2.900000
C 0.959964 -0.717891 2.900000
H 1.819840 -1.373246 2.900000
C 0.959964 0.717891 2.900000
H 1.819840 1.373246 2.900000
C -0.347359 -1.094894 2.900000
H -0.850457 -2.049779 2.900000
$end
$rem
  JOBTYPE                   SP
  EXCHANGE                  OMEGAB97X-DDSC
  BASIS                     DEF2-QZVP
  SYMMETRY                  FALSE
  MAX_SCF_CYCLES            100
  SCF_ALGORITHM             DIIS
  MEM_TOTAL                 1800
  MEM_STATIC                400
  SCF_GUESS                 SAD
  THRESH                    10
  unrestricted              TRUE
$end

$wb97x_ddsc
  CC_AB           1.000000    1.794130  -12.047700   14.084700   -8.508090
  CC_AA           1.000000   -6.905390   31.334300  -51.053300   26.442300
  TTA            19.2971
  TTB             1.4322
  CX_AA           0.779640    0.661160    0.574541   -5.256710   11.638600
  CXHF            0.222036
  OMEGA           0.200000
$end

--------------------------------------------------------------

    7    -459.8729702416      5.40E-06 Convergence criterion met
 Total energy in the final basis set = -459.8729702416
 Total job time:  4578.06s(wall), 4577.52s(cpu)
        *  Thank you very much for using Q-Chem.  Have a nice day.  *

User input:
--------------------------------------------------------------

$molecule
  READ
$end

$rem
  JOBTYPE                   SP
  EXCHANGE                  OMEGAB97X-DDSC
  BASIS                     DEF2-QZVP
  SYMMETRY                  FALSE
  MAX_SCF_CYCLES            100
  SCF_ALGORITHM             DIIS
  MEM_TOTAL                 1800
  MEM_STATIC                400
  SCF_GUESS                 READ
  DFTVDW_JOBNUMBER          1
  DFTVDW_METHOD             4
  XC_GRID                   000075000302
  THRESH                    12
  unrestricted              TRUE
$end

$wb97x_ddsc
  CC_AB           1.000000    1.794130  -12.047700   14.084700   -8.508090
  CC_AA           1.000000   -6.905390   31.334300  -51.053300   26.442300
  TTA            19.2971
  TTB             1.4322
  CX_AA           0.779640    0.661160    0.574541   -5.256710   11.638600
  CXHF            0.222036
  OMEGA           0.200000
$end

--------------------------------------------------------------

       Standard Nuclear Orientation (Angstroms)
    I     Atom         X            Y            Z
 ----------------------------------------------------
    1      O       1.550000     1.176237     0.000000
    2      C       1.550000     0.369891    -1.083017
    3      H       1.550000     0.860605    -2.049077
    4      C       1.550000    -0.991037     0.691793
    5      H       1.550001    -1.838676     1.365016
    6      C       1.550000    -0.991037    -0.691793
    7      H       1.550001    -1.838676    -1.365016
    8      C       1.550000     0.369891     1.083017
    9      H       1.550000     0.860605     2.049077
   10      O      -1.550000    -1.161251     0.000000
   11      C      -1.550000    -0.347360    -1.094894
   12      H      -1.550000    -0.850458    -2.049779
   13      C      -1.550000     0.959963     0.717891
   14      H      -1.550001     1.819839     1.373246
   15      C      -1.550000     0.959963    -0.717891
   16      H      -1.550001     1.819839    -1.373246
   17      C      -1.550000    -0.347360     1.094894
   18      H      -1.550000    -0.850458     2.049779
 ----------------------------------------------------

    2    -459.8726267523      4.10E-06 Convergence criterion met
    2    -459.8872608760      4.10E-06 -- Convergence criterion met (with XDM)
 Total energy in the final basis set = -459.8872608760

             Orbital Energies (a.u.) and Symmetries
 --------------------------------------------------------------

 Alpha MOs, Unrestricted
 -- Occupied --
-19.526 -19.497 -10.566 -10.566 -10.532 -10.532 -10.494 -10.494
  1 A'    2 A'    1 A"    3 A'    2 A"    4 A'    5 A'    3 A"
-10.471 -10.471  -1.425  -1.392  -1.104  -1.082  -1.048  -1.028
  6 A'    4 A"    7 A'    8 A'    9 A'   10 A'    5 A"    6 A"
 -0.887  -0.869  -0.864  -0.841  -0.829  -0.807  -0.759  -0.729
  7 A"    8 A"   11 A'   12 A'   13 A'   14 A'   15 A'    9 A"
 -0.718  -0.705  -0.688  -0.678  -0.671  -0.656  -0.655  -0.636
 16 A'   10 A"   17 A'   11 A"   12 A"   18 A'   19 A'   20 A'
 -0.564  -0.540  -0.535  -0.483
 21 A'   22 A'   13 A"   14 A"

 Beta MOs, Unrestricted
 -- Occupied --
-19.527 -19.497 -10.562 -10.562 -10.530 -10.530 -10.494 -10.493
  1 A'    2 A'    3 A'    1 A"    4 A'    2 A"    5 A'    3 A"
-10.471 -10.471  -1.423  -1.390  -1.100  -1.078  -1.034  -1.018
  6 A'    4 A"    7 A'    8 A'    9 A'   10 A'    5 A"    6 A"
 -0.883  -0.866  -0.856  -0.836  -0.827  -0.806  -0.746  -0.726
  7 A"    8 A"   11 A'   12 A'   13 A'   14 A'   15 A'    9 A"
 -0.706  -0.703  -0.688  -0.674  -0.668  -0.655  -0.654  -0.634
 16 A'   10 A"   17 A'   11 A"   12 A"   18 A'   19 A'   20 A'
 -0.557  -0.535  -0.478
 21 A'   22 A'   13 A"

          Ground-State Mulliken Net Atomic Charges

     Atom                 Charge (a.u.)    Spin (a.u.)
  --------------------------------------------------------
      1 O                    -0.208728      -0.030290
      2 C                     0.114081       0.297068
      3 H                     0.202145      -0.011499
      4 C                    -0.085276       0.032757
      5 H                     0.169662      -0.002784
      6 C                    -0.085279       0.032758
      7 H                     0.169662      -0.002784
      8 C                     0.114076       0.297071
      9 H                     0.202145      -0.011500
     10 O                    -0.252370      -0.018534
     11 C                     0.094884       0.189132
     12 H                     0.192955      -0.008218
     13 C                    -0.119785       0.030457
     14 H                     0.161889      -0.002505
     15 C                    -0.119786       0.030459
     16 H                     0.161888      -0.002505
     17 C                     0.094883       0.189136
     18 H                     0.192955      -0.008218
  --------------------------------------------------------
  Sum of atomic charges =     1.000000

                    Cartesian Multipole Moments
 -----------------------------------------------------------------
    Charge (ESU x 10^10)
                 4.8032
    Dipole Moment (Debye)
         X       1.1856      Y       0.0379      Z       0.0000
       Tot       1.1862
    Quadrupole Moments (Debye-Ang)
        XX     -44.8142     XY      -3.1246     YY     -47.3918
        XZ       0.0000     YZ       0.0000     ZZ     -36.8055
    Octapole Moments (Debye-Ang^2)
       XXX       4.6321    XXY       0.2653    XYY       2.0097
       YYY      -0.5502    XXZ       0.0000    XYZ       0.0000
       YYZ       0.0000    XZZ       2.2096    YZZ       0.0039
       ZZZ       0.0000
    Hexadecapole Moments (Debye-Ang^3)
      XXXX    -862.7787   XXXY      18.4381   XXYY    -178.7452
      XYYY     -16.6321   YYYY    -298.2635   XXXZ       0.0000
      XXYZ       0.0000   XYYZ       0.0000   YYYZ       0.0000
      XXZZ    -156.3310   XYZZ      13.5561   YYZZ     -76.5874

 Total job time:  3260.56s(wall), 3260.40s(cpu)
        *  Thank you very much for using Q-Chem.  Have a nice day.  *
